MODEL 1
REMARK VINA RESULT:     -11.1      0.000      0.000
REMARK  Name = ZINC000247714414
REMARK  1 active torsions:
REMARK  status: ('A' for Active; 'I' for Inactive)
REMARK    1  A    between atoms: N_13  and  C_23
REMARK                            x       y       z     vdW  Elec       q    Type
REMARK                         _______ _______ _______ _____ _____    ______ ____
ROOT
ATOM      1  O   UNL     1      26.503  11.415 -26.452  0.00  0.00    -0.276 OA
ATOM      2  C   UNL     1      26.740  12.547 -26.818  0.00  0.00    +0.216 C 
ATOM      3  N   UNL     1      27.787  13.311 -26.449  0.00  0.00    -0.285 N 
ATOM      4  C   UNL     1      27.757  14.571 -27.051  0.00  0.00    +0.045 C 
ATOM      5  C   UNL     1      28.629  15.652 -26.944  0.00  0.00    +0.014 C 
ATOM      6  C   UNL     1      28.384  16.814 -27.646  0.00  0.00    +0.001 C 
ATOM      7  C   UNL     1      27.272  16.916 -28.461  0.00  0.00    -0.000 C 
ATOM      8  C   UNL     1      26.401  15.847 -28.574  0.00  0.00    -0.004 C 
ATOM      9  C   UNL     1      26.641  14.685 -27.876  0.00  0.00    -0.014 C 
ATOM     10  C   UNL     1      25.928  13.370 -27.775  0.00  0.00    +0.072 C 
ATOM     11  C   UNL     1      25.594  12.720 -29.054  0.00  0.00    +0.083 C 
ATOM     12  C   UNL     1      26.108  12.208 -30.295  0.00  0.00    +0.234 C 
ATOM     13  N   UNL     1      25.012  11.599 -30.869  0.00  0.00    -0.208 N 
ATOM     14  C   UNL     1      23.970  11.452 -29.985  0.00  0.00    +0.233 C 
ATOM     15  O   UNL     1      22.793  11.307 -30.236  0.00  0.00    -0.274 OA
ATOM     16  O   UNL     1      27.235  12.292 -30.733  0.00  0.00    -0.274 OA
ATOM     17  C   UNL     1      24.653  11.500 -28.621  0.00  0.00    +0.071 C 
ATOM     18  C   UNL     1      24.027  12.112 -27.435  0.00  0.00    -0.030 C 
ATOM     19  C   UNL     1      22.625  12.245 -26.947  0.00  0.00    -0.018 C 
ATOM     20  C   UNL     1      22.897  13.033 -25.617  0.00  0.00    -0.020 C 
ATOM     21  C   UNL     1      24.292  13.699 -25.831  0.00  0.00    -0.054 C 
ATOM     22  N   UNL     1      24.534  13.543 -27.292  0.00  0.00    +0.346 NA
ATOM     23  H   UNL     1      28.491  13.016 -25.828  0.00  0.00    +0.155 HD
ATOM     24  H   UNL     1      24.154  14.357 -27.774  0.00  0.00    -0.053 HD
ATOM     25  H   UNL     1      23.902  14.208 -27.736  0.00  0.00    -0.053 HD
ENDROOT
BRANCH  13  26
ATOM     26  C   UNL     1      24.966  11.177 -32.204  0.00  0.00    +0.061 C 
ATOM     27  C   UNL     1      24.578  12.078 -33.202  0.00  0.00    +0.015 C 
ATOM     28  C   UNL     1      24.524  11.696 -34.506  0.00  0.00    +0.001 C 
ATOM     29  C   UNL     1      24.863  10.380 -34.865  0.00  0.00    +0.000 C 
ATOM     30  C   UNL     1      24.818   9.957 -36.204  0.00  0.00    +0.000 C 
ATOM     31  C   UNL     1      25.153   8.676 -36.519  0.00  0.00    +0.000 C 
ATOM     32  C   UNL     1      25.540   7.773 -35.530  0.00  0.00    +0.000 C 
ATOM     33  C   UNL     1      25.596   8.146 -34.223  0.00  0.00    +0.000 C 
ATOM     34  C   UNL     1      25.258   9.461 -33.860  0.00  0.00    +0.001 C 
ATOM     35  C   UNL     1      25.310   9.882 -32.521  0.00  0.00    +0.015 C 
ENDBRANCH  13  26
TORSDOF 1
ENDMDL
MODEL 2
REMARK VINA RESULT:      -9.2     12.872     14.699
REMARK  Name = ZINC000247714414
REMARK  1 active torsions:
REMARK  status: ('A' for Active; 'I' for Inactive)
REMARK    1  A    between atoms: N_13  and  C_23
REMARK                            x       y       z     vdW  Elec       q    Type
REMARK                         _______ _______ _______ _____ _____    ______ ____
ROOT
ATOM      1  O   UNL     1      20.318   0.890 -24.943  0.00  0.00    -0.276 OA
ATOM      2  C   UNL     1      19.876   1.926 -24.491  0.00  0.00    +0.216 C 
ATOM      3  N   UNL     1      20.570   3.052 -24.228  0.00  0.00    -0.285 N 
ATOM      4  C   UNL     1      19.758   4.060 -23.705  0.00  0.00    +0.045 C 
ATOM      5  C   UNL     1      20.064   5.357 -23.300  0.00  0.00    +0.014 C 
ATOM      6  C   UNL     1      19.075   6.182 -22.806  0.00  0.00    +0.001 C 
ATOM      7  C   UNL     1      17.772   5.729 -22.709  0.00  0.00    -0.000 C 
ATOM      8  C   UNL     1      17.459   4.442 -23.110  0.00  0.00    -0.004 C 
ATOM      9  C   UNL     1      18.442   3.615 -23.604  0.00  0.00    -0.014 C 
ATOM     10  C   UNL     1      18.450   2.208 -24.120  0.00  0.00    +0.072 C 
ATOM     11  C   UNL     1      17.447   1.896 -25.152  0.00  0.00    +0.083 C 
ATOM     12  C   UNL     1      16.933   2.239 -26.450  0.00  0.00    +0.234 C 
ATOM     13  N   UNL     1      16.013   1.244 -26.704  0.00  0.00    -0.208 N 
ATOM     14  C   UNL     1      16.119   0.194 -25.824  0.00  0.00    +0.233 C 
ATOM     15  O   UNL     1      15.276  -0.629 -25.539  0.00  0.00    -0.274 OA
ATOM     16  O   UNL     1      17.235   3.179 -27.153  0.00  0.00    -0.274 OA
ATOM     17  C   UNL     1      17.551   0.306 -25.309  0.00  0.00    +0.071 C 
ATOM     18  C   UNL     1      17.931  -0.029 -23.924  0.00  0.00    -0.030 C 
ATOM     19  C   UNL     1      17.448  -1.021 -22.922  0.00  0.00    -0.018 C 
ATOM     20  C   UNL     1      18.418  -0.669 -21.738  0.00  0.00    -0.020 C 
ATOM     21  C   UNL     1      18.895   0.786 -22.035  0.00  0.00    -0.054 C 
ATOM     22  N   UNL     1      17.959   1.251 -23.096  0.00  0.00    +0.346 NA
ATOM     23  H   UNL     1      21.537   3.151 -24.385  0.00  0.00    +0.155 HD
ATOM     24  H   UNL     1      17.150   1.686 -22.650  0.00  0.00    -0.053 HD
ATOM     25  H   UNL     1      17.072   1.403 -22.616  0.00  0.00    -0.053 HD
ENDROOT
BRANCH  13  26
ATOM     26  C   UNL     1      15.075   1.298 -27.743  0.00  0.00    +0.061 C 
ATOM     27  C   UNL     1      15.423   0.832 -29.016  0.00  0.00    +0.015 C 
ATOM     28  C   UNL     1      14.533   0.872 -30.042  0.00  0.00    +0.001 C 
ATOM     29  C   UNL     1      13.242   1.388 -29.830  0.00  0.00    +0.000 C 
ATOM     30  C   UNL     1      12.300   1.441 -30.873  0.00  0.00    +0.000 C 
ATOM     31  C   UNL     1      11.059   1.945 -30.634  0.00  0.00    +0.000 C 
ATOM     32  C   UNL     1      10.705   2.411 -29.370  0.00  0.00    +0.000 C 
ATOM     33  C   UNL     1      11.589   2.375 -28.336  0.00  0.00    +0.000 C 
ATOM     34  C   UNL     1      12.880   1.861 -28.544  0.00  0.00    +0.001 C 
ATOM     35  C   UNL     1      13.817   1.804 -27.499  0.00  0.00    +0.015 C 
ENDBRANCH  13  26
TORSDOF 1
ENDMDL
MODEL 3
REMARK VINA RESULT:      -9.0      6.745     10.706
REMARK  Name = ZINC000247714414
REMARK  1 active torsions:
REMARK  status: ('A' for Active; 'I' for Inactive)
REMARK    1  A    between atoms: N_13  and  C_23
REMARK                            x       y       z     vdW  Elec       q    Type
REMARK                         _______ _______ _______ _____ _____    ______ ____
ROOT
ATOM      1  O   UNL     1      20.322  12.842 -18.020  0.00  0.00    -0.276 OA
ATOM      2  C   UNL     1      19.583  12.005 -18.493  0.00  0.00    +0.216 C 
ATOM      3  N   UNL     1      18.255  11.892 -18.288  0.00  0.00    -0.285 N 
ATOM      4  C   UNL     1      17.705  10.810 -18.979  0.00  0.00    +0.045 C 
ATOM      5  C   UNL     1      16.396  10.340 -19.041  0.00  0.00    +0.014 C 
ATOM      6  C   UNL     1      16.092   9.231 -19.804  0.00  0.00    +0.001 C 
ATOM      7  C   UNL     1      17.083   8.578 -20.513  0.00  0.00    -0.000 C 
ATOM      8  C   UNL     1      18.386   9.039 -20.458  0.00  0.00    -0.004 C 
ATOM      9  C   UNL     1      18.696  10.145 -19.698  0.00  0.00    -0.014 C 
ATOM     10  C   UNL     1      19.965  10.894 -19.427  0.00  0.00    +0.072 C 
ATOM     11  C   UNL     1      20.740  11.295 -20.614  0.00  0.00    +0.083 C 
ATOM     12  C   UNL     1      20.721  12.019 -21.855  0.00  0.00    +0.234 C 
ATOM     13  N   UNL     1      22.035  11.977 -22.272  0.00  0.00    -0.208 N 
ATOM     14  C   UNL     1      22.885  11.547 -21.282  0.00  0.00    +0.233 C 
ATOM     15  O   UNL     1      23.990  11.062 -21.406  0.00  0.00    -0.274 OA
ATOM     16  O   UNL     1      19.775  12.541 -22.406  0.00  0.00    -0.274 OA
ATOM     17  C   UNL     1      22.114  11.840 -19.998  0.00  0.00    +0.071 C 
ATOM     18  C   UNL     1      22.184  10.973 -18.808  0.00  0.00    -0.030 C 
ATOM     19  C   UNL     1      23.245  10.122 -18.199  0.00  0.00    -0.018 C 
ATOM     20  C   UNL     1      22.444   9.570 -16.966  0.00  0.00    -0.020 C 
ATOM     21  C   UNL     1      20.944   9.731 -17.365  0.00  0.00    -0.054 C 
ATOM     22  N   UNL     1      20.999  10.014 -18.826  0.00  0.00    +0.346 NA
ATOM     23  H   UNL     1      17.734  12.500 -17.716  0.00  0.00    +0.155 HD
ATOM     24  H   UNL     1      20.961   9.128 -19.331  0.00  0.00    -0.053 HD
ATOM     25  H   UNL     1      21.247   9.124 -19.257  0.00  0.00    -0.053 HD
ENDROOT
BRANCH  13  26
ATOM     26  C   UNL     1      22.455  12.334 -23.560  0.00  0.00    +0.061 C 
ATOM     27  C   UNL     1      23.052  13.582 -23.773  0.00  0.00    +0.015 C 
ATOM     28  C   UNL     1      23.470  13.954 -25.012  0.00  0.00    +0.001 C 
ATOM     29  C   UNL     1      23.303  13.078 -26.100  0.00  0.00    +0.000 C 
ATOM     30  C   UNL     1      23.725  13.436 -27.392  0.00  0.00    +0.000 C 
ATOM     31  C   UNL     1      23.550  12.565 -28.423  0.00  0.00    +0.000 C 
ATOM     32  C   UNL     1      22.956  11.321 -28.219  0.00  0.00    +0.000 C 
ATOM     33  C   UNL     1      22.535  10.940 -26.983  0.00  0.00    +0.000 C 
ATOM     34  C   UNL     1      22.700  11.812 -25.892  0.00  0.00    +0.001 C 
ATOM     35  C   UNL     1      22.282  11.450 -24.601  0.00  0.00    +0.015 C 
ENDBRANCH  13  26
TORSDOF 1
ENDMDL
MODEL 4
REMARK VINA RESULT:      -9.0      3.549      8.769
REMARK  Name = ZINC000247714414
REMARK  1 active torsions:
REMARK  status: ('A' for Active; 'I' for Inactive)
REMARK    1  A    between atoms: N_13  and  C_23
REMARK                            x       y       z     vdW  Elec       q    Type
REMARK                         _______ _______ _______ _____ _____    ______ ____
ROOT
ATOM      1  O   UNL     1      23.888  14.937 -28.059  0.00  0.00    -0.276 OA
ATOM      2  C   UNL     1      24.990  14.613 -27.671  0.00  0.00    +0.216 C 
ATOM      3  N   UNL     1      26.118  15.349 -27.740  0.00  0.00    -0.285 N 
ATOM      4  C   UNL     1      27.219  14.676 -27.207  0.00  0.00    +0.045 C 
ATOM      5  C   UNL     1      28.551  15.064 -27.085  0.00  0.00    +0.014 C 
ATOM      6  C   UNL     1      29.473  14.210 -26.516  0.00  0.00    +0.001 C 
ATOM      7  C   UNL     1      29.084  12.963 -26.063  0.00  0.00    -0.000 C 
ATOM      8  C   UNL     1      27.763  12.570 -26.179  0.00  0.00    -0.004 C 
ATOM      9  C   UNL     1      26.838  13.418 -26.746  0.00  0.00    -0.014 C 
ATOM     10  C   UNL     1      25.367  13.318 -27.014  0.00  0.00    +0.072 C 
ATOM     11  C   UNL     1      24.531  12.913 -25.871  0.00  0.00    +0.083 C 
ATOM     12  C   UNL     1      24.140  13.215 -24.521  0.00  0.00    +0.234 C 
ATOM     13  N   UNL     1      23.121  12.320 -24.275  0.00  0.00    -0.208 N 
ATOM     14  C   UNL     1      22.675  11.704 -25.420  0.00  0.00    +0.233 C 
ATOM     15  O   UNL     1      22.082  10.651 -25.517  0.00  0.00    -0.274 OA
ATOM     16  O   UNL     1      24.598  14.054 -23.776  0.00  0.00    -0.274 OA
ATOM     17  C   UNL     1      23.091  12.669 -26.527  0.00  0.00    +0.071 C 
ATOM     18  C   UNL     1      23.528  12.215 -27.859  0.00  0.00    -0.030 C 
ATOM     19  C   UNL     1      23.172  11.064 -28.737  0.00  0.00    -0.018 C 
ATOM     20  C   UNL     1      24.118  11.376 -29.951  0.00  0.00    -0.020 C 
ATOM     21  C   UNL     1      25.233  12.293 -29.359  0.00  0.00    -0.054 C 
ATOM     22  N   UNL     1      25.051  12.158 -27.887  0.00  0.00    +0.346 NA
ATOM     23  H   UNL     1      26.160  16.256 -28.121  0.00  0.00    +0.155 HD
ATOM     24  H   UNL     1      25.621  11.378 -27.558  0.00  0.00    -0.053 HD
ATOM     25  H   UNL     1      25.393  11.224 -27.664  0.00  0.00    -0.053 HD
ENDROOT
BRANCH  13  26
ATOM     26  C   UNL     1      22.598  12.067 -22.999  0.00  0.00    +0.061 C 
ATOM     27  C   UNL     1      23.443  11.606 -21.984  0.00  0.00    +0.015 C 
ATOM     28  C   UNL     1      22.962  11.353 -20.737  0.00  0.00    +0.001 C 
ATOM     29  C   UNL     1      21.599  11.554 -20.457  0.00  0.00    +0.000 C 
ATOM     30  C   UNL     1      21.075  11.302 -19.177  0.00  0.00    +0.000 C 
ATOM     31  C   UNL     1      19.751  11.508 -18.939  0.00  0.00    +0.000 C 
ATOM     32  C   UNL     1      18.904  11.967 -19.946  0.00  0.00    +0.000 C 
ATOM     33  C   UNL     1      19.375  12.223 -21.196  0.00  0.00    +0.000 C 
ATOM     34  C   UNL     1      20.737  12.022 -21.480  0.00  0.00    +0.001 C 
ATOM     35  C   UNL     1      21.259  12.281 -22.759  0.00  0.00    +0.015 C 
ENDBRANCH  13  26
TORSDOF 1
ENDMDL
MODEL 5
REMARK VINA RESULT:      -8.9      7.614     12.027
REMARK  Name = ZINC000247714414
REMARK  1 active torsions:
REMARK  status: ('A' for Active; 'I' for Inactive)
REMARK    1  A    between atoms: N_13  and  C_23
REMARK                            x       y       z     vdW  Elec       q    Type
REMARK                         _______ _______ _______ _____ _____    ______ ____
ROOT
ATOM      1  O   UNL     1      18.106  10.623 -17.790  0.00  0.00    -0.276 OA
ATOM      2  C   UNL     1      17.813   9.877 -18.701  0.00  0.00    +0.216 C 
ATOM      3  N   UNL     1      16.576   9.463 -19.038  0.00  0.00    -0.285 N 
ATOM      4  C   UNL     1      16.590   8.600 -20.137  0.00  0.00    +0.045 C 
ATOM      5  C   UNL     1      15.551   7.951 -20.798  0.00  0.00    +0.014 C 
ATOM      6  C   UNL     1      15.819   7.132 -21.876  0.00  0.00    +0.001 C 
ATOM      7  C   UNL     1      17.119   6.950 -22.309  0.00  0.00    -0.000 C 
ATOM      8  C   UNL     1      18.157   7.593 -21.659  0.00  0.00    -0.004 C 
ATOM      9  C   UNL     1      17.896   8.410 -20.582  0.00  0.00    -0.014 C 
ATOM     10  C   UNL     1      18.757   9.240 -19.678  0.00  0.00    +0.072 C 
ATOM     11  C   UNL     1      19.699  10.154 -20.347  0.00  0.00    +0.083 C 
ATOM     12  C   UNL     1      19.840  11.241 -21.277  0.00  0.00    +0.234 C 
ATOM     13  N   UNL     1      21.172  11.581 -21.172  0.00  0.00    -0.208 N 
ATOM     14  C   UNL     1      21.778  11.001 -20.084  0.00  0.00    +0.233 C 
ATOM     15  O   UNL     1      22.960  10.796 -19.910  0.00  0.00    -0.274 OA
ATOM     16  O   UNL     1      18.991  11.738 -21.985  0.00  0.00    -0.274 OA
ATOM     17  C   UNL     1      20.611  10.696 -19.148  0.00  0.00    +0.071 C 
ATOM     18  C   UNL     1      20.572   9.504 -18.282  0.00  0.00    -0.030 C 
ATOM     19  C   UNL     1      21.604   8.703 -17.563  0.00  0.00    -0.018 C 
ATOM     20  C   UNL     1      20.668   7.629 -16.902  0.00  0.00    -0.020 C 
ATOM     21  C   UNL     1      19.373   7.642 -17.772  0.00  0.00    -0.054 C 
ATOM     22  N   UNL     1      19.774   8.410 -18.984  0.00  0.00    +0.346 NA
ATOM     23  H   UNL     1      15.757   9.736 -18.566  0.00  0.00    +0.155 HD
ATOM     24  H   UNL     1      20.144   7.757 -19.676  0.00  0.00    -0.053 HD
ATOM     25  H   UNL     1      20.383   7.780 -19.504  0.00  0.00    -0.053 HD
ENDROOT
BRANCH  13  26
ATOM     26  C   UNL     1      21.833  12.425 -22.075  0.00  0.00    +0.061 C 
ATOM     27  C   UNL     1      22.298  13.672 -21.643  0.00  0.00    +0.015 C 
ATOM     28  C   UNL     1      22.943  14.511 -22.498  0.00  0.00    +0.001 C 
ATOM     29  C   UNL     1      23.149  14.126 -23.834  0.00  0.00    +0.000 C 
ATOM     30  C   UNL     1      23.814  14.972 -24.739  0.00  0.00    +0.000 C 
ATOM     31  C   UNL     1      23.998  14.570 -26.027  0.00  0.00    +0.000 C 
ATOM     32  C   UNL     1      23.537  13.329 -26.463  0.00  0.00    +0.000 C 
ATOM     33  C   UNL     1      22.891  12.484 -25.616  0.00  0.00    +0.000 C 
ATOM     34  C   UNL     1      22.682  12.864 -24.279  0.00  0.00    +0.001 C 
ATOM     35  C   UNL     1      22.023  12.014 -23.375  0.00  0.00    +0.015 C 
ENDBRANCH  13  26
TORSDOF 1
ENDMDL
MODEL 6
REMARK VINA RESULT:      -8.6      3.477      8.992
REMARK  Name = ZINC000247714414
REMARK  1 active torsions:
REMARK  status: ('A' for Active; 'I' for Inactive)
REMARK    1  A    between atoms: N_13  and  C_23
REMARK                            x       y       z     vdW  Elec       q    Type
REMARK                         _______ _______ _______ _____ _____    ______ ____
ROOT
ATOM      1  O   UNL     1      27.545  13.491 -26.477  0.00  0.00    -0.276 OA
ATOM      2  C   UNL     1      26.688  13.093 -27.238  0.00  0.00    +0.216 C 
ATOM      3  N   UNL     1      26.867  12.290 -28.306  0.00  0.00    -0.285 N 
ATOM      4  C   UNL     1      25.669  12.028 -28.974  0.00  0.00    +0.045 C 
ATOM      5  C   UNL     1      25.408  11.263 -30.109  0.00  0.00    +0.014 C 
ATOM      6  C   UNL     1      24.119  11.154 -30.591  0.00  0.00    +0.001 C 
ATOM      7  C   UNL     1      23.078  11.802 -29.953  0.00  0.00    -0.000 C 
ATOM      8  C   UNL     1      23.328  12.564 -28.825  0.00  0.00    -0.004 C 
ATOM      9  C   UNL     1      24.612  12.676 -28.340  0.00  0.00    -0.014 C 
ATOM     10  C   UNL     1      25.219  13.393 -27.172  0.00  0.00    +0.072 C 
ATOM     11  C   UNL     1      24.576  13.156 -25.867  0.00  0.00    +0.083 C 
ATOM     12  C   UNL     1      24.181  12.169 -24.901  0.00  0.00    +0.234 C 
ATOM     13  N   UNL     1      23.744  12.924 -23.832  0.00  0.00    -0.208 N 
ATOM     14  C   UNL     1      24.092  14.248 -23.948  0.00  0.00    +0.233 C 
ATOM     15  O   UNL     1      23.579  15.204 -23.407  0.00  0.00    -0.274 OA
ATOM     16  O   UNL     1      24.220  10.962 -25.001  0.00  0.00    -0.274 OA
ATOM     17  C   UNL     1      25.283  14.220 -24.902  0.00  0.00    +0.071 C 
ATOM     18  C   UNL     1      25.538  15.283 -25.892  0.00  0.00    -0.030 C 
ATOM     19  C   UNL     1      25.305  16.754 -25.925  0.00  0.00    -0.018 C 
ATOM     20  C   UNL     1      25.880  17.065 -27.353  0.00  0.00    -0.020 C 
ATOM     21  C   UNL     1      25.826  15.699 -28.107  0.00  0.00    -0.054 C 
ATOM     22  N   UNL     1      24.962  14.854 -27.237  0.00  0.00    +0.346 NA
ATOM     23  H   UNL     1      27.740  11.931 -28.583  0.00  0.00    +0.155 HD
ATOM     24  H   UNL     1      23.991  14.969 -27.530  0.00  0.00    -0.053 HD
ATOM     25  H   UNL     1      24.019  15.217 -27.371  0.00  0.00    -0.053 HD
ENDROOT
BRANCH  13  26
ATOM     26  C   UNL     1      23.027  12.398 -22.749  0.00  0.00    +0.061 C 
ATOM     27  C   UNL     1      23.716  11.887 -21.644  0.00  0.00    +0.015 C 
ATOM     28  C   UNL     1      23.046  11.371 -20.580  0.00  0.00    +0.001 C 
ATOM     29  C   UNL     1      21.640  11.347 -20.582  0.00  0.00    +0.000 C 
ATOM     30  C   UNL     1      20.920  10.821 -19.496  0.00  0.00    +0.000 C 
ATOM     31  C   UNL     1      19.559  10.814 -19.528  0.00  0.00    +0.000 C 
ATOM     32  C   UNL     1      18.866  11.321 -20.626  0.00  0.00    +0.000 C 
ATOM     33  C   UNL     1      19.528  11.839 -21.695  0.00  0.00    +0.000 C 
ATOM     34  C   UNL     1      20.934  11.864 -21.697  0.00  0.00    +0.001 C 
ATOM     35  C   UNL     1      21.650  12.396 -22.782  0.00  0.00    +0.015 C 
ENDBRANCH  13  26
TORSDOF 1
ENDMDL
MODEL 7
REMARK VINA RESULT:      -8.5      3.225      6.004
REMARK  Name = ZINC000247714414
REMARK  1 active torsions:
REMARK  status: ('A' for Active; 'I' for Inactive)
REMARK    1  A    between atoms: N_13  and  C_23
REMARK                            x       y       z     vdW  Elec       q    Type
REMARK                         _______ _______ _______ _____ _____    ______ ____
ROOT
ATOM      1  O   UNL     1      26.170  15.818 -23.318  0.00  0.00    -0.276 OA
ATOM      2  C   UNL     1      25.371  15.021 -22.872  0.00  0.00    +0.216 C 
ATOM      3  N   UNL     1      24.316  15.295 -22.079  0.00  0.00    -0.285 N 
ATOM      4  C   UNL     1      23.602  14.144 -21.737  0.00  0.00    +0.045 C 
ATOM      5  C   UNL     1      22.466  13.978 -20.948  0.00  0.00    +0.014 C 
ATOM      6  C   UNL     1      21.936  12.720 -20.751  0.00  0.00    +0.001 C 
ATOM      7  C   UNL     1      22.525  11.614 -21.335  0.00  0.00    -0.000 C 
ATOM      8  C   UNL     1      23.653  11.770 -22.122  0.00  0.00    -0.004 C 
ATOM      9  C   UNL     1      24.187  13.023 -22.322  0.00  0.00    -0.014 C 
ATOM     10  C   UNL     1      25.361  13.538 -23.098  0.00  0.00    +0.072 C 
ATOM     11  C   UNL     1      25.442  13.105 -24.504  0.00  0.00    +0.083 C 
ATOM     12  C   UNL     1      24.773  13.068 -25.775  0.00  0.00    +0.234 C 
ATOM     13  N   UNL     1      25.731  12.559 -26.627  0.00  0.00    -0.208 N 
ATOM     14  C   UNL     1      26.983  12.546 -26.061  0.00  0.00    +0.233 C 
ATOM     15  O   UNL     1      27.934  11.861 -26.371  0.00  0.00    -0.274 OA
ATOM     16  O   UNL     1      23.638  13.403 -26.036  0.00  0.00    -0.274 OA
ATOM     17  C   UNL     1      26.890  13.607 -24.968  0.00  0.00    +0.071 C 
ATOM     18  C   UNL     1      27.591  13.488 -23.677  0.00  0.00    -0.030 C 
ATOM     19  C   UNL     1      28.885  12.887 -23.245  0.00  0.00    -0.018 C 
ATOM     20  C   UNL     1      28.816  13.223 -21.713  0.00  0.00    -0.020 C 
ATOM     21  C   UNL     1      27.298  13.445 -21.424  0.00  0.00    -0.054 C 
ATOM     22  N   UNL     1      26.629  12.913 -22.643  0.00  0.00    +0.346 NA
ATOM     23  H   UNL     1      24.076  16.200 -21.776  0.00  0.00    +0.155 HD
ATOM     24  H   UNL     1      26.435  11.922 -22.502  0.00  0.00    -0.053 HD
ATOM     25  H   UNL     1      26.721  11.900 -22.572  0.00  0.00    -0.053 HD
ENDROOT
BRANCH  13  26
ATOM     26  C   UNL     1      25.457  12.107 -27.924  0.00  0.00    +0.061 C 
ATOM     27  C   UNL     1      24.432  11.177 -28.131  0.00  0.00    +0.015 C 
ATOM     28  C   UNL     1      24.144  10.721 -29.380  0.00  0.00    +0.001 C 
ATOM     29  C   UNL     1      24.883  11.185 -30.482  0.00  0.00    +0.000 C 
ATOM     30  C   UNL     1      24.607  10.732 -31.784  0.00  0.00    +0.000 C 
ATOM     31  C   UNL     1      25.340  11.201 -32.831  0.00  0.00    +0.000 C 
ATOM     32  C   UNL     1      26.363  12.127 -32.632  0.00  0.00    +0.000 C 
ATOM     33  C   UNL     1      26.658  12.589 -31.387  0.00  0.00    +0.000 C 
ATOM     34  C   UNL     1      25.923  12.127 -30.281  0.00  0.00    +0.001 C 
ATOM     35  C   UNL     1      26.196  12.587 -28.982  0.00  0.00    +0.015 C 
ENDBRANCH  13  26
TORSDOF 1
ENDMDL
MODEL 8
REMARK VINA RESULT:      -8.4      3.906      5.886
REMARK  Name = ZINC000247714414
REMARK  1 active torsions:
REMARK  status: ('A' for Active; 'I' for Inactive)
REMARK    1  A    between atoms: N_13  and  C_23
REMARK                            x       y       z     vdW  Elec       q    Type
REMARK                         _______ _______ _______ _____ _____    ______ ____
ROOT
ATOM      1  O   UNL     1      25.379  10.102 -25.415  0.00  0.00    -0.276 OA
ATOM      2  C   UNL     1      25.005  11.137 -24.905  0.00  0.00    +0.216 C 
ATOM      3  N   UNL     1      24.975  11.423 -23.588  0.00  0.00    -0.285 N 
ATOM      4  C   UNL     1      24.480  12.705 -23.338  0.00  0.00    +0.045 C 
ATOM      5  C   UNL     1      24.281  13.386 -22.140  0.00  0.00    +0.014 C 
ATOM      6  C   UNL     1      23.768  14.667 -22.147  0.00  0.00    +0.001 C 
ATOM      7  C   UNL     1      23.449  15.285 -23.342  0.00  0.00    -0.000 C 
ATOM      8  C   UNL     1      23.644  14.616 -24.537  0.00  0.00    -0.004 C 
ATOM      9  C   UNL     1      24.155  13.337 -24.536  0.00  0.00    -0.014 C 
ATOM     10  C   UNL     1      24.491  12.354 -25.617  0.00  0.00    +0.072 C 
ATOM     11  C   UNL     1      25.339  12.863 -26.709  0.00  0.00    +0.083 C 
ATOM     12  C   UNL     1      26.591  13.479 -27.049  0.00  0.00    +0.234 C 
ATOM     13  N   UNL     1      26.599  13.447 -28.428  0.00  0.00    -0.208 N 
ATOM     14  C   UNL     1      25.618  12.633 -28.940  0.00  0.00    +0.233 C 
ATOM     15  O   UNL     1      25.128  12.662 -30.049  0.00  0.00    -0.274 OA
ATOM     16  O   UNL     1      27.438  13.923 -26.304  0.00  0.00    -0.274 OA
ATOM     17  C   UNL     1      25.310  11.681 -27.788  0.00  0.00    +0.071 C 
ATOM     18  C   UNL     1      23.956  11.165 -27.518  0.00  0.00    -0.030 C 
ATOM     19  C   UNL     1      22.784  10.814 -28.370  0.00  0.00    -0.018 C 
ATOM     20  C   UNL     1      21.788  10.355 -27.246  0.00  0.00    -0.020 C 
ATOM     21  C   UNL     1      22.321  11.030 -25.944  0.00  0.00    -0.054 C 
ATOM     22  N   UNL     1      23.302  12.032 -26.447  0.00  0.00    +0.346 NA
ATOM     23  H   UNL     1      25.267  10.800 -22.884  0.00  0.00    +0.155 HD
ATOM     24  H   UNL     1      22.813  12.912 -26.614  0.00  0.00    -0.053 HD
ATOM     25  H   UNL     1      22.734  12.771 -26.861  0.00  0.00    -0.053 HD
ENDROOT
BRANCH  13  26
ATOM     26  C   UNL     1      27.507  14.165 -29.218  0.00  0.00    +0.061 C 
ATOM     27  C   UNL     1      28.531  13.485 -29.888  0.00  0.00    +0.015 C 
ATOM     28  C   UNL     1      29.426  14.156 -30.661  0.00  0.00    +0.001 C 
ATOM     29  C   UNL     1      29.328  15.552 -30.795  0.00  0.00    +0.000 C 
ATOM     30  C   UNL     1      30.238  16.272 -31.588  0.00  0.00    +0.000 C 
ATOM     31  C   UNL     1      30.116  17.623 -31.697  0.00  0.00    +0.000 C 
ATOM     32  C   UNL     1      29.100  18.307 -31.032  0.00  0.00    +0.000 C 
ATOM     33  C   UNL     1      28.200  17.644 -30.257  0.00  0.00    +0.000 C 
ATOM     34  C   UNL     1      28.294  16.248 -30.120  0.00  0.00    +0.001 C 
ATOM     35  C   UNL     1      27.379  15.531 -29.331  0.00  0.00    +0.015 C 
ENDBRANCH  13  26
TORSDOF 1
ENDMDL
MODEL 9
REMARK VINA RESULT:      -8.2      9.659     11.549
REMARK  Name = ZINC000247714414
REMARK  1 active torsions:
REMARK  status: ('A' for Active; 'I' for Inactive)
REMARK    1  A    between atoms: N_13  and  C_23
REMARK                            x       y       z     vdW  Elec       q    Type
REMARK                         _______ _______ _______ _____ _____    ______ ____
ROOT
ATOM      1  O   UNL     1      22.005   1.014 -26.138  0.00  0.00    -0.276 OA
ATOM      2  C   UNL     1      21.074   1.732 -25.839  0.00  0.00    +0.216 C 
ATOM      3  N   UNL     1      20.939   2.448 -24.704  0.00  0.00    -0.285 N 
ATOM      4  C   UNL     1      19.741   3.164 -24.672  0.00  0.00    +0.045 C 
ATOM      5  C   UNL     1      19.213   4.012 -23.702  0.00  0.00    +0.014 C 
ATOM      6  C   UNL     1      17.987   4.614 -23.899  0.00  0.00    +0.001 C 
ATOM      7  C   UNL     1      17.273   4.381 -25.059  0.00  0.00    -0.000 C 
ATOM      8  C   UNL     1      17.791   3.540 -26.029  0.00  0.00    -0.004 C 
ATOM      9  C   UNL     1      19.013   2.937 -25.838  0.00  0.00    -0.014 C 
ATOM     10  C   UNL     1      19.848   2.003 -26.661  0.00  0.00    +0.072 C 
ATOM     11  C   UNL     1      20.091   2.415 -28.054  0.00  0.00    +0.083 C 
ATOM     12  C   UNL     1      20.610   3.442 -28.914  0.00  0.00    +0.234 C 
ATOM     13  N   UNL     1      20.558   2.868 -30.167  0.00  0.00    -0.208 N 
ATOM     14  C   UNL     1      20.323   1.515 -30.114  0.00  0.00    +0.233 C 
ATOM     15  O   UNL     1      19.872   0.802 -30.985  0.00  0.00    -0.274 OA
ATOM     16  O   UNL     1      21.000   4.550 -28.612  0.00  0.00    -0.274 OA
ATOM     17  C   UNL     1      20.782   1.129 -28.711  0.00  0.00    +0.071 C 
ATOM     18  C   UNL     1      20.115   0.085 -27.911  0.00  0.00    -0.030 C 
ATOM     19  C   UNL     1      19.415  -1.189 -28.237  0.00  0.00    -0.018 C 
ATOM     20  C   UNL     1      19.029  -1.639 -26.783  0.00  0.00    -0.020 C 
ATOM     21  C   UNL     1      19.063  -0.327 -25.940  0.00  0.00    -0.054 C 
ATOM     22  N   UNL     1      19.116   0.748 -26.969  0.00  0.00    +0.346 NA
ATOM     23  H   UNL     1      21.608   2.463 -23.981  0.00  0.00    +0.155 HD
ATOM     24  H   UNL     1      18.161   1.016 -27.210  0.00  0.00    -0.053 HD
ATOM     25  H   UNL     1      18.181   0.771 -27.373  0.00  0.00    -0.053 HD
ENDROOT
BRANCH  13  26
ATOM     26  C   UNL     1      20.727   3.584 -31.359  0.00  0.00    +0.061 C 
ATOM     27  C   UNL     1      19.637   4.257 -31.923  0.00  0.00    +0.015 C 
ATOM     28  C   UNL     1      19.772   4.959 -33.079  0.00  0.00    +0.001 C 
ATOM     29  C   UNL     1      21.021   5.016 -33.723  0.00  0.00    +0.000 C 
ATOM     30  C   UNL     1      21.190   5.736 -34.919  0.00  0.00    +0.000 C 
ATOM     31  C   UNL     1      22.412   5.771 -35.517  0.00  0.00    +0.000 C 
ATOM     32  C   UNL     1      23.502   5.103 -34.961  0.00  0.00    +0.000 C 
ATOM     33  C   UNL     1      23.377   4.398 -33.805  0.00  0.00    +0.000 C 
ATOM     34  C   UNL     1      22.130   4.338 -33.158  0.00  0.00    +0.001 C 
ATOM     35  C   UNL     1      21.965   3.623 -31.960  0.00  0.00    +0.015 C 
ENDBRANCH  13  26
TORSDOF 1
ENDMDL
